file 37881018 1296040718                                        
version 2
run General-0-20110126-11:15:18-8282
attr configname General
attr datetime 20110126-11:15:18
attr experiment General
attr inifile /home/edema/workspace/libPowerlineBasic/simulations/Generic_Simulations/Generic_Access_BPLC_No1.ini
attr iterationvars ""
attr iterationvars2 $repetition=0
attr measurement ""
attr network simulations.Generic_Simulations.Generic_Access_BPLC_No1
attr processid 8282
attr repetition 0
attr replication #0
attr resultdir results
attr runnumber 0
attr seedset 0
vector 89  Generic_Access_BPLC_No1.BPLAM_Server.eth[0].mac  framesSent  ETV
89	14544876 1923 2729 270051 3.000006719999 3.680415089998 70 1 70 2485 116795
vector 91  Generic_Access_BPLC_No1.BPLAM_Server.eth[0].mac  bytesSent  ETV
91	14606662 2056 2729 270051 3.000006719999 3.680415089998 70 64 4480 159040 478392320
vector 24  Generic_Access_BPLC_No1.dataCollector  datarate_BPLC_Vector  ETV
24	4678437 1812760 2810 4137274 3.00020165 57.0606 69932 101 136 7927115 903481683
24	24929559 1386192 4137280 7253791 57.0606 99.6806018 52568 101 135 5947235 676389547
vector 26  Generic_Access_BPLC_No1.dataCollector  PER_BPLC_Vector  ETV
26	6491197 1672896 2810 4137274 3.00020165 57.0606 69932 0 0 0 0
26	26315751 1281056 4137280 7253791 57.0606 99.6806018 52568 0 0 0 0
vector 20  Generic_Access_BPLC_No1.dataCollector  runTimeVector_BPLC  ETV
20	207951 2168546 2812 4137278 3.00020165 57.0606 69932 2.780002 196.430001 890919.5486388 99916481.133459
20	21526329 1649032 4137283 7253794 57.0606 99.6806018 52568 2.780002 7.430002 251908.74513605 1266579.7148347
vector 22  Generic_Access_BPLC_No1.dataCollector  runTimeVector_clean_BPLC  ETV
22	2376497 2301940 2812 4137272 3.00020165 57.0606 69931 176.211767 320.790001 14184593.002113 2908953021.285
22	23175361 1754198 4137278 7253794 57.0606 99.6806018 52569 183.775412 204.140002 10456445.756697 2080623551.2005
vector 41  Generic_Access_BPLC_No1.dataCollector  priorityVector_BPLC  ETV
41	10397802 1672876 2812 4137272 3.00020165 57.0606 69931 1 4 155717 364739
41	29298596 1281077 4137278 7253794 57.0606 99.6806018 52569 1 4 116933 274641
vector 29  Generic_Access_BPLC_No1.dataCollector  higherLayerOffsetVector_BPLC  ETV
29	8164093 2233549 2812 4137272 3.00020165 57.0606 69931 6.769999 415.139998 6562314.1776178 772722595.21004
29	27596807 1701629 4137278 7253794 57.0606 99.6806018 52569 87.249999 87.249999 4586645.1974352 400184788.88902
vector 602  Generic_Access_BPLC_No1.IKTGateway2_28.eth[0].mac  framesReceivedOK  ETV
602	19819550 62138 3125 4135678 3.000208419999 57.040688799999 1943 1 1943 1888596 2446990884
602	36669415 48147 4137712 7253920 57.060688799999 99.680688799999 1459 1944 3402 3899907 10683263421
vector 604  Generic_Access_BPLC_No1.IKTGateway2_28.eth[0].mac  bytesReceivedOK  ETV
604	19883526 67816 3125 4135678 3.000208419999 57.040688799999 1943 64 1974386 1824648846 2.3996881453021e+15
604	36719028 52524 4137712 7253920 57.060688799999 99.680688799999 1459 1975456 3535516 4020254074 1.1374067687599e+16
vector 608  Generic_Access_BPLC_No1.IKTGateway2_28.eth[0].mac  framesPassedToHL  ETV
608	20012378 1021 3125 269362 3.000208419999 3.680208419999 36 1 36 666 16206
vector 586  Generic_Access_BPLC_No1.IKTGateway2_27.eth[0].mac  framesReceivedOK  ETV
586	19624025 62138 3131 4135676 3.000208469999 57.040688749999 1943 1 1943 1888596 2446990884
586	36517798 48147 4137710 7253916 57.060688749999 99.680688749999 1459 1944 3402 3899907 10683263421
vector 588  Generic_Access_BPLC_No1.IKTGateway2_27.eth[0].mac  bytesReceivedOK  ETV
588	19688001 67816 3131 4135676 3.000208469999 57.040688749999 1943 64 1974386 1824646834 2.3996880100837e+15
588	36567411 52524 4137710 7253916 57.060688749999 99.680688749999 1459 1975456 3535516 4020254074 1.1374067687599e+16
vector 592  Generic_Access_BPLC_No1.IKTGateway2_27.eth[0].mac  framesPassedToHL  ETV
592	19816853 1021 3131 269368 3.000208469999 3.680208469999 36 1 36 666 16206
vector 570  Generic_Access_BPLC_No1.IKTGateway2_26.eth[0].mac  framesReceivedOK  ETV
570	19428500 62138 3137 4135674 3.000208519999 57.040688699999 1943 1 1943 1888596 2446990884
570	36366181 48147 4137708 7253912 57.060688699999 99.680688699999 1459 1944 3402 3899907 10683263421
vector 572  Generic_Access_BPLC_No1.IKTGateway2_26.eth[0].mac  bytesReceivedOK  ETV
572	19492476 67816 3137 4135674 3.000208519999 57.040688699999 1943 64 1974386 1824644822 2.3996878799435e+15
572	36415794 52524 4137708 7253912 57.060688699999 99.680688699999 1459 1975456 3535516 4020254074 1.1374067687599e+16
vector 576  Generic_Access_BPLC_No1.IKTGateway2_26.eth[0].mac  framesPassedToHL  ETV
576	19621328 1021 3137 269374 3.000208519999 3.680208519999 36 1 36 666 16206
vector 554  Generic_Access_BPLC_No1.IKTGateway2_25.eth[0].mac  framesReceivedOK  ETV
554	19232975 62138 3143 4135672 3.000208569999 57.040688649999 1943 1 1943 1888596 2446990884
554	36214564 48147 4137706 7253908 57.060688649999 99.680688649999 1459 1944 3402 3899907 10683263421
vector 556  Generic_Access_BPLC_No1.IKTGateway2_25.eth[0].mac  bytesReceivedOK  ETV
556	19296951 67816 3143 4135672 3.000208569999 57.040688649999 1943 64 1974386 1824642810 2.3996877548816e+15
556	36264177 52524 4137706 7253908 57.060688649999 99.680688649999 1459 1975456 3535516 4020254074 1.1374067687599e+16
vector 560  Generic_Access_BPLC_No1.IKTGateway2_25.eth[0].mac  framesPassedToHL  ETV
560	19425803 1021 3143 269380 3.000208569999 3.680208569999 36 1 36 666 16206
vector 538  Generic_Access_BPLC_No1.IKTGateway2_24.eth[0].mac  framesReceivedOK  ETV
538	19037450 62138 3149 4135670 3.000208619999 57.040688599999 1943 1 1943 1888596 2446990884
538	36062947 48147 4137704 7253904 57.060688599999 99.680688599999 1459 1944 3402 3899907 10683263421
vector 540  Generic_Access_BPLC_No1.IKTGateway2_24.eth[0].mac  bytesReceivedOK  ETV
540	19101426 67816 3149 4135670 3.000208619999 57.040688599999 1943 64 1974386 1824640798 2.399687634898e+15
540	36112560 52524 4137704 7253904 57.060688599999 99.680688599999 1459 1975456 3535516 4020254074 1.1374067687599e+16
vector 544  Generic_Access_BPLC_No1.IKTGateway2_24.eth[0].mac  framesPassedToHL  ETV
544	19230278 1021 3149 269386 3.000208619999 3.680208619999 36 1 36 666 16206
vector 522  Generic_Access_BPLC_No1.IKTGateway2_23.eth[0].mac  framesReceivedOK  ETV
522	18841925 62138 3155 4135668 3.000208669999 57.040688549999 1943 1 1943 1888596 2446990884
522	35911330 48147 4137702 7253900 57.060688549999 99.680688549999 1459 1944 3402 3899907 10683263421
vector 524  Generic_Access_BPLC_No1.IKTGateway2_23.eth[0].mac  bytesReceivedOK  ETV
524	18905901 67816 3155 4135668 3.000208669999 57.040688549999 1943 64 1974386 1824638786 2.3996875199927e+15
524	35960943 52524 4137702 7253900 57.060688549999 99.680688549999 1459 1975456 3535516 4020254074 1.1374067687599e+16
vector 528  Generic_Access_BPLC_No1.IKTGateway2_23.eth[0].mac  framesPassedToHL  ETV
528	19034753 1021 3155 269392 3.000208669999 3.680208669999 36 1 36 666 16206
vector 506  Generic_Access_BPLC_No1.IKTGateway2_22.eth[0].mac  framesReceivedOK  ETV
506	18646400 62138 3161 4135666 3.000208719999 57.040688499999 1943 1 1943 1888596 2446990884
506	35759713 48147 4137700 7253896 57.060688499999 99.680688499999 1459 1944 3402 3899907 10683263421
vector 508  Generic_Access_BPLC_No1.IKTGateway2_22.eth[0].mac  bytesReceivedOK  ETV
508	18710376 67816 3161 4135666 3.000208719999 57.040688499999 1943 64 1974386 1824636774 2.3996874101656e+15
508	35809326 52524 4137700 7253896 57.060688499999 99.680688499999 1459 1975456 3535516 4020254074 1.1374067687599e+16
vector 512  Generic_Access_BPLC_No1.IKTGateway2_22.eth[0].mac  framesPassedToHL  ETV
512	18839228 1021 3161 269398 3.000208719999 3.680208719999 36 1 36 666 16206
vector 646  Generic_Access_BPLC_No1.IKTGateway2_29.eth[0].mac  framesReceivedOK  ETV
646	20015075 62138 3167 4135664 3.000208769999 57.040688449999 1943 1 1943 1888596 2446990884
646	36821032 48147 4137698 7253892 57.060688449999 99.680688449999 1459 1944 3402 3899907 10683263421
vector 648  Generic_Access_BPLC_No1.IKTGateway2_29.eth[0].mac  bytesReceivedOK  ETV
648	20079051 67816 3167 4135664 3.000208769999 57.040688449999 1943 64 1974386 1824650858 2.3996882855989e+15
648	36870645 52524 4137698 7253892 57.060688449999 99.680688449999 1459 1975456 3535516 4020254074 1.1374067687599e+16
vector 652  Generic_Access_BPLC_No1.IKTGateway2_29.eth[0].mac  framesPassedToHL  ETV
652	20207903 1021 3167 269404 3.000208769999 3.680208769999 36 1 36 666 16206
vector 662  Generic_Access_BPLC_No1.IKTGateway2_30.eth[0].mac  framesReceivedOK  ETV
662	20210600 62138 3173 4135662 3.000208819999 57.040688399999 1943 1 1943 1888596 2446990884
662	36972649 48147 4137696 7253888 57.060688399999 99.680688399999 1459 1944 3402 3899907 10683263421
vector 664  Generic_Access_BPLC_No1.IKTGateway2_30.eth[0].mac  bytesReceivedOK  ETV
664	20274576 67816 3173 4135662 3.000208819999 57.040688399999 1943 64 1974386 1824652870 2.3996884309739e+15
664	37022262 52524 4137696 7253888 57.060688399999 99.680688399999 1459 1975456 3535516 4020254074 1.1374067687599e+16
vector 668  Generic_Access_BPLC_No1.IKTGateway2_30.eth[0].mac  framesPassedToHL  ETV
668	20403428 1021 3173 269410 3.000208819999 3.680208819999 36 1 36 666 16206
vector 678  Generic_Access_BPLC_No1.IKTGateway2_31.eth[0].mac  framesReceivedOK  ETV
678	20406125 62138 3179 4135660 3.000208869999 57.040688349999 1943 1 1943 1888596 2446990884
678	37124266 48147 4137694 7253884 57.060688349999 99.680688349999 1459 1944 3402 3899907 10683263421
vector 680  Generic_Access_BPLC_No1.IKTGateway2_31.eth[0].mac  bytesReceivedOK  ETV
680	20470101 67816 3179 4135660 3.000208869999 57.040688349999 1943 64 1974386 1824654882 2.3996885814273e+15
680	37173879 52524 4137694 7253884 57.060688349999 99.680688349999 1459 1975456 3535516 4020254074 1.1374067687599e+16
vector 684  Generic_Access_BPLC_No1.IKTGateway2_31.eth[0].mac  framesPassedToHL  ETV
684	20598953 1021 3179 269416 3.000208869999 3.680208869999 36 1 36 666 16206
vector 694  Generic_Access_BPLC_No1.IKTGateway2_32.eth[0].mac  framesReceivedOK  ETV
694	20601650 62138 3185 4135658 3.000208919999 57.040688299999 1943 1 1943 1888596 2446990884
694	37275883 48147 4137692 7253880 57.060688299999 99.680688299999 1459 1944 3402 3899907 10683263421
vector 696  Generic_Access_BPLC_No1.IKTGateway2_32.eth[0].mac  bytesReceivedOK  ETV
696	20665626 67816 3185 4135658 3.000208919999 57.040688299999 1943 64 1974386 1824656894 2.3996887369589e+15
696	37325496 52524 4137692 7253880 57.060688299999 99.680688299999 1459 1975456 3535516 4020254074 1.1374067687599e+16
vector 700  Generic_Access_BPLC_No1.IKTGateway2_32.eth[0].mac  framesPassedToHL  ETV
700	20794478 1021 3185 269422 3.000208919999 3.680208919999 36 1 36 666 16206
vector 710  Generic_Access_BPLC_No1.IKTGateway2_33.eth[0].mac  framesReceivedOK  ETV
710	20797175 62138 3191 4135656 3.000208969999 57.040688249999 1943 1 1943 1888596 2446990884
710	37427500 48147 4137690 7253876 57.060688249999 99.680688249999 1459 1944 3402 3899907 10683263421
vector 712  Generic_Access_BPLC_No1.IKTGateway2_33.eth[0].mac  bytesReceivedOK  ETV
712	20861151 67816 3191 4135656 3.000208969999 57.040688249999 1943 64 1974386 1824658906 2.3996888975688e+15
712	37477113 52524 4137690 7253876 57.060688249999 99.680688249999 1459 1975456 3535516 4020254074 1.1374067687599e+16
vector 716  Generic_Access_BPLC_No1.IKTGateway2_33.eth[0].mac  framesPassedToHL  ETV
716	20990003 1021 3191 269428 3.000208969999 3.680208969999 36 1 36 666 16206
vector 726  Generic_Access_BPLC_No1.IKTGateway2_34.eth[0].mac  framesReceivedOK  ETV
726	20992700 62137 3197 4135654 3.000209019999 57.040688199999 1943 1 1943 1888596 2446990884
726	37579117 48147 4137688 7253872 57.060688199999 99.680688199999 1459 1944 3402 3899907 10683263421
vector 728  Generic_Access_BPLC_No1.IKTGateway2_34.eth[0].mac  bytesReceivedOK  ETV
728	21056675 67815 3197 4135654 3.000209019999 57.040688199999 1943 64 1974386 1824660918 2.399689063257e+15
728	37628730 52524 4137688 7253872 57.060688199999 99.680688199999 1459 1975456 3535516 4020254074 1.1374067687599e+16
vector 732  Generic_Access_BPLC_No1.IKTGateway2_34.eth[0].mac  framesPassedToHL  ETV
732	21185525 1021 3197 269434 3.000209019999 3.680209019999 36 1 36 666 16206
vector 742  Generic_Access_BPLC_No1.IKTGateway2_35.eth[0].mac  framesReceivedOK  ETV
742	21188223 62137 3203 4135652 3.000209069999 57.040688149999 1943 1 1943 1888596 2446990884
742	37730734 48147 4137686 7251837 57.060688149999 99.660688249999 1459 1944 3402 3899907 10683263421
vector 744  Generic_Access_BPLC_No1.IKTGateway2_35.eth[0].mac  bytesReceivedOK  ETV
744	21252199 67815 3203 4135652 3.000209069999 57.040688149999 1943 64 1974386 1824662930 2.3996892340235e+15
744	37780347 52524 4137686 7251837 57.060688149999 99.660688249999 1459 1975456 3535516 4020254074 1.1374067687599e+16
vector 748  Generic_Access_BPLC_No1.IKTGateway2_35.eth[0].mac  framesPassedToHL  ETV
748	21381049 1021 3203 270474 3.000209069999 3.680509069999 36 1 36 666 16206
vector 206  Generic_Access_BPLC_No1.IKTGateway2_7.eth[0].mac  framesReceivedOK  ETV
206	15713513 62140 3209 4135650 3.000209119999 57.040688099999 1943 1 1943 1888596 2446990884
206	33485458 48147 4137684 7253871 57.060688099999 99.680688199999 1459 1944 3402 3899907 10683263421
vector 208  Generic_Access_BPLC_No1.IKTGateway2_7.eth[0].mac  bytesReceivedOK  ETV
208	15777489 67816 3209 4135650 3.000209119999 57.040688099999 1943 64 1974386 1824606594 2.3996863721547e+15
208	33535071 52524 4137684 7253871 57.060688099999 99.680688199999 1459 1975456 3535516 4020254074 1.1374067687599e+16
vector 212  Generic_Access_BPLC_No1.IKTGateway2_7.eth[0].mac  framesPassedToHL  ETV
212	15906344 1020 3209 269450 3.000209119999 3.680209119999 36 1 36 666 16206
vector 186  Generic_Access_BPLC_No1.IKTGateway2_6.eth[0].mac  framesReceivedOK  ETV
186	15517988 62140 3215 4135648 3.000209169999 57.040688049999 1943 1 1943 1888596 2446990884
186	33333841 48147 4137682 7253875 57.060688049999 99.680688249999 1459 1944 3402 3899907 10683263421
vector 188  Generic_Access_BPLC_No1.IKTGateway2_6.eth[0].mac  bytesReceivedOK  ETV
188	15581964 67816 3215 4135648 3.000209169999 57.040688049999 1943 64 1974386 1824604582 2.3996863435803e+15
188	33383454 52524 4137682 7253875 57.060688049999 99.680688249999 1459 1975456 3535516 4020254074 1.1374067687599e+16
vector 192  Generic_Access_BPLC_No1.IKTGateway2_6.eth[0].mac  framesPassedToHL  ETV
192	15710819 1020 3215 269456 3.000209169999 3.680209169999 36 1 36 666 16206
vector 462  Generic_Access_BPLC_No1.IKTGateway2_21.eth[0].mac  framesReceivedOK  ETV
462	18450875 62138 3221 4135646 3.000209219999 57.040687999999 1943 1 1943 1888596 2446990884
462	35608096 48147 4137680 7253879 57.060687999999 99.680688299999 1459 1944 3402 3899907 10683263421
vector 464  Generic_Access_BPLC_No1.IKTGateway2_21.eth[0].mac  bytesReceivedOK  ETV
464	18514851 67816 3221 4135646 3.000209219999 57.040687999999 1943 64 1974386 1824634762 2.3996873054169e+15
464	35657709 52524 4137680 7253879 57.060687999999 99.680688299999 1459 1975456 3535516 4020254074 1.1374067687599e+16
vector 468  Generic_Access_BPLC_No1.IKTGateway2_21.eth[0].mac  framesPassedToHL  ETV
468	18643703 1021 3221 269462 3.000209219999 3.680209219999 36 1 36 666 16206
vector 446  Generic_Access_BPLC_No1.IKTGateway2_20.eth[0].mac  framesReceivedOK  ETV
446	18255350 62138 3227 4135644 3.000209269999 57.040687949999 1943 1 1943 1888596 2446990884
446	35456479 48147 4137678 7253883 57.060687949999 99.680688349999 1459 1944 3402 3899907 10683263421
vector 448  Generic_Access_BPLC_No1.IKTGateway2_20.eth[0].mac  bytesReceivedOK  ETV
448	18319326 67816 3227 4135644 3.000209269999 57.040687949999 1943 64 1974386 1824632750 2.3996872057464e+15
448	35506092 52524 4137678 7253883 57.060687949999 99.680688349999 1459 1975456 3535516 4020254074 1.1374067687599e+16
vector 452  Generic_Access_BPLC_No1.IKTGateway2_20.eth[0].mac  framesPassedToHL  ETV
452	18448178 1021 3227 269468 3.000209269999 3.680209269999 36 1 36 666 16206
vector 430  Generic_Access_BPLC_No1.IKTGateway2_19.eth[0].mac  framesReceivedOK  ETV
430	18059825 62138 3233 4135642 3.000209319999 57.040687899999 1943 1 1943 1888596 2446990884
430	35304862 48147 4137676 7253887 57.060687899999 99.680688399999 1459 1944 3402 3899907 10683263421
vector 432  Generic_Access_BPLC_No1.IKTGateway2_19.eth[0].mac  bytesReceivedOK  ETV
432	18123801 67816 3233 4135642 3.000209319999 57.040687899999 1943 64 1974386 1824630738 2.3996871111543e+15
432	35354475 52524 4137676 7253887 57.060687899999 99.680688399999 1459 1975456 3535516 4020254074 1.1374067687599e+16
vector 436  Generic_Access_BPLC_No1.IKTGateway2_19.eth[0].mac  framesPassedToHL  ETV
436	18252653 1021 3233 269474 3.000209319999 3.680209319999 36 1 36 666 16206
vector 414  Generic_Access_BPLC_No1.IKTGateway2_18.eth[0].mac  framesReceivedOK  ETV
414	17864300 62138 3239 4135640 3.000209369999 57.040687849999 1943 1 1943 1888596 2446990884
414	35153245 48147 4137674 7253891 57.060687849999 99.680688449999 1459 1944 3402 3899907 10683263421
vector 416  Generic_Access_BPLC_No1.IKTGateway2_18.eth[0].mac  bytesReceivedOK  ETV
416	17928276 67816 3239 4135640 3.000209369999 57.040687849999 1943 64 1974386 1824628726 2.3996870216404e+15
416	35202858 52524 4137674 7253891 57.060687849999 99.680688449999 1459 1975456 3535516 4020254074 1.1374067687599e+16
vector 420  Generic_Access_BPLC_No1.IKTGateway2_18.eth[0].mac  framesPassedToHL  ETV
420	18057128 1021 3239 269480 3.000209369999 3.680209369999 36 1 36 666 16206
vector 398  Generic_Access_BPLC_No1.IKTGateway2_17.eth[0].mac  framesReceivedOK  ETV
398	17668775 62138 3245 4135638 3.000209419999 57.040687799999 1943 1 1943 1888596 2446990884
398	35001628 48147 4137672 7253895 57.060687799999 99.680688499999 1459 1944 3402 3899907 10683263421
vector 400  Generic_Access_BPLC_No1.IKTGateway2_17.eth[0].mac  bytesReceivedOK  ETV
400	17732751 67816 3245 4135638 3.000209419999 57.040687799999 1943 64 1974386 1824626714 2.3996869372048e+15
400	35051241 52524 4137672 7253895 57.060687799999 99.680688499999 1459 1975456 3535516 4020254074 1.1374067687599e+16
vector 404  Generic_Access_BPLC_No1.IKTGateway2_17.eth[0].mac  framesPassedToHL  ETV
404	17861603 1021 3245 269486 3.000209419999 3.680209419999 36 1 36 666 16206
vector 382  Generic_Access_BPLC_No1.IKTGateway2_16.eth[0].mac  framesReceivedOK  ETV
382	17473250 62138 3251 4135636 3.000209469999 57.040687749999 1943 1 1943 1888596 2446990884
382	34850011 48147 4137670 7253899 57.060687749999 99.680688549999 1459 1944 3402 3899907 10683263421
vector 384  Generic_Access_BPLC_No1.IKTGateway2_16.eth[0].mac  bytesReceivedOK  ETV
384	17537226 67816 3251 4135636 3.000209469999 57.040687749999 1943 64 1974386 1824624702 2.3996868578475e+15
384	34899624 52524 4137670 7253899 57.060687749999 99.680688549999 1459 1975456 3535516 4020254074 1.1374067687599e+16
vector 388  Generic_Access_BPLC_No1.IKTGateway2_16.eth[0].mac  framesPassedToHL  ETV
388	17666078 1021 3251 269492 3.000209469999 3.680209469999 36 1 36 666 16206
vector 366  Generic_Access_BPLC_No1.IKTGateway2_15.eth[0].mac  framesReceivedOK  ETV
366	17277725 62138 3257 4135634 3.000209519999 57.040687699999 1943 1 1943 1888596 2446990884
366	34698394 48147 4137668 7253903 57.060687699999 99.680688599999 1459 1944 3402 3899907 10683263421
vector 368  Generic_Access_BPLC_No1.IKTGateway2_15.eth[0].mac  bytesReceivedOK  ETV
368	17341701 67816 3257 4135634 3.000209519999 57.040687699999 1943 64 1974386 1824622690 2.3996867835685e+15
368	34748007 52524 4137668 7253903 57.060687699999 99.680688599999 1459 1975456 3535516 4020254074 1.1374067687599e+16
vector 372  Generic_Access_BPLC_No1.IKTGateway2_15.eth[0].mac  framesPassedToHL  ETV
372	17470553 1021 3257 269498 3.000209519999 3.680209519999 36 1 36 666 16206
vector 322  Generic_Access_BPLC_No1.IKTGateway2_14.eth[0].mac  framesReceivedOK  ETV
322	17082200 62138 3263 4135632 3.000209569999 57.040687649999 1943 1 1943 1888596 2446990884
322	34546777 48147 4137666 7253907 57.060687649999 99.680688649999 1459 1944 3402 3899907 10683263421
vector 324  Generic_Access_BPLC_No1.IKTGateway2_14.eth[0].mac  bytesReceivedOK  ETV
324	17146176 67816 3263 4135632 3.000209569999 57.040687649999 1943 64 1974386 1824620678 2.3996867143677e+15
324	34596390 52524 4137666 7253907 57.060687649999 99.680688649999 1459 1975456 3535516 4020254074 1.1374067687599e+16
vector 328  Generic_Access_BPLC_No1.IKTGateway2_14.eth[0].mac  framesPassedToHL  ETV
328	17275028 1021 3263 269504 3.000209569999 3.680209569999 36 1 36 666 16206
vector 306  Generic_Access_BPLC_No1.IKTGateway2_13.eth[0].mac  framesReceivedOK  ETV
306	16886671 62140 3269 4135630 3.000209619999 57.040687599999 1943 1 1943 1888596 2446990884
306	34395160 48147 4137664 7253911 57.060687599999 99.680688699999 1459 1944 3402 3899907 10683263421
vector 308  Generic_Access_BPLC_No1.IKTGateway2_13.eth[0].mac  bytesReceivedOK  ETV
308	16950647 67818 3269 4135630 3.000209619999 57.040687599999 1943 64 1974386 1824618666 2.3996866502453e+15
308	34444773 52524 4137664 7253911 57.060687599999 99.680688699999 1459 1975456 3535516 4020254074 1.1374067687599e+16
vector 312  Generic_Access_BPLC_No1.IKTGateway2_13.eth[0].mac  framesPassedToHL  ETV
312	17079504 1020 3269 269510 3.000209619999 3.680209619999 36 1 36 666 16206
vector 290  Generic_Access_BPLC_No1.IKTGateway2_12.eth[0].mac  framesReceivedOK  ETV
290	16691144 62140 3275 4135628 3.000209669999 57.040687549999 1943 1 1943 1888596 2446990884
290	34243543 48147 4137662 7253915 57.060687549999 99.680688749999 1459 1944 3402 3899907 10683263421
vector 292  Generic_Access_BPLC_No1.IKTGateway2_12.eth[0].mac  bytesReceivedOK  ETV
292	16755120 67818 3275 4135628 3.000209669999 57.040687549999 1943 64 1974386 1824616654 2.3996865912011e+15
292	34293156 52524 4137662 7253915 57.060687549999 99.680688749999 1459 1975456 3535516 4020254074 1.1374067687599e+16
vector 296  Generic_Access_BPLC_No1.IKTGateway2_12.eth[0].mac  framesPassedToHL  ETV
296	16883977 1020 3275 269516 3.000209669999 3.680209669999 36 1 36 666 16206
vector 274  Generic_Access_BPLC_No1.IKTGateway2_11.eth[0].mac  framesReceivedOK  ETV
274	16495617 62140 3281 4135626 3.000209719999 57.040687499999 1943 1 1943 1888596 2446990884
274	34091926 48147 4137660 7253919 57.060687499999 99.680688799999 1459 1944 3402 3899907 10683263421
vector 276  Generic_Access_BPLC_No1.IKTGateway2_11.eth[0].mac  bytesReceivedOK  ETV
276	16559593 67818 3281 4135626 3.000209719999 57.040687499999 1943 64 1974386 1824614642 2.3996865372353e+15
276	34141539 52524 4137660 7253919 57.060687499999 99.680688799999 1459 1975456 3535516 4020254074 1.1374067687599e+16
vector 280  Generic_Access_BPLC_No1.IKTGateway2_11.eth[0].mac  framesPassedToHL  ETV
280	16688450 1020 3281 269522 3.000209719999 3.680209719999 36 1 36 666 16206
vector 258  Generic_Access_BPLC_No1.IKTGateway2_10.eth[0].mac  framesReceivedOK  ETV
258	16300090 62140 3287 4135624 3.000209769999 57.040687449999 1943 1 1943 1888596 2446990884
258	33940309 48147 4137658 7253922 57.060687449999 99.680688849999 1459 1944 3402 3899907 10683263421
vector 260  Generic_Access_BPLC_No1.IKTGateway2_10.eth[0].mac  bytesReceivedOK  ETV
260	16364066 67818 3287 4135624 3.000209769999 57.040687449999 1943 64 1974386 1824612630 2.3996864883477e+15
260	33989922 52524 4137658 7253922 57.060687449999 99.680688849999 1459 1975456 3535516 4020254074 1.1374067687599e+16
vector 264  Generic_Access_BPLC_No1.IKTGateway2_10.eth[0].mac  framesPassedToHL  ETV
264	16492923 1020 3287 269528 3.000209769999 3.680209769999 36 1 36 666 16206
vector 242  Generic_Access_BPLC_No1.IKTGateway2_9.eth[0].mac  framesReceivedOK  ETV
242	16104563 62140 3293 4135622 3.000209819999 57.040687399999 1943 1 1943 1888596 2446990884
242	33788692 48147 4137656 7253964 57.060687399999 99.680688899999 1459 1944 3402 3899907 10683263421
vector 244  Generic_Access_BPLC_No1.IKTGateway2_9.eth[0].mac  bytesReceivedOK  ETV
244	16168539 67818 3293 4135622 3.000209819999 57.040687399999 1943 64 1974386 1824610618 2.3996864445384e+15
244	33838305 52524 4137656 7253964 57.060687399999 99.680688899999 1459 1975456 3535516 4020254074 1.1374067687599e+16
vector 248  Generic_Access_BPLC_No1.IKTGateway2_9.eth[0].mac  framesPassedToHL  ETV
248	16297396 1020 3293 269534 3.000209819999 3.680209819999 36 1 36 666 16206
vector 226  Generic_Access_BPLC_No1.IKTGateway2_8.eth[0].mac  framesReceivedOK  ETV
226	15909038 62140 3299 4135620 3.000209869999 57.040687349999 1943 1 1943 1888596 2446990884
226	33637075 48147 4137654 7253966 57.060687349999 99.680688949999 1459 1944 3402 3899907 10683263421
vector 228  Generic_Access_BPLC_No1.IKTGateway2_8.eth[0].mac  bytesReceivedOK  ETV
228	15973014 67816 3299 4135620 3.000209869999 57.040687349999 1943 64 1974386 1824608606 2.3996864058074e+15
228	33686688 52524 4137654 7253966 57.060687349999 99.680688949999 1459 1975456 3535516 4020254074 1.1374067687599e+16
vector 232  Generic_Access_BPLC_No1.IKTGateway2_8.eth[0].mac  framesPassedToHL  ETV
232	16101869 1020 3299 269540 3.000209869999 3.680209869999 36 1 36 666 16206
vector 166  Generic_Access_BPLC_No1.IKTGateway2_5.eth[0].mac  framesReceivedOK  ETV
166	15322463 62140 3308 4135618 3.000209919999 57.040687299999 1943 1 1943 1888596 2446990884
166	33182224 48147 4137652 7253971 57.060687299999 99.680688999999 1459 1944 3402 3899907 10683263421
vector 168  Generic_Access_BPLC_No1.IKTGateway2_5.eth[0].mac  bytesReceivedOK  ETV
168	15386439 67816 3308 4135618 3.000209919999 57.040687299999 1943 64 1974386 1824602570 2.3996863200841e+15
168	33231837 52524 4137652 7253971 57.060687299999 99.680688999999 1459 1975456 3535516 4020254074 1.1374067687599e+16
vector 172  Generic_Access_BPLC_No1.IKTGateway2_5.eth[0].mac  framesPassedToHL  ETV
172	15515294 1020 3308 269549 3.000209919999 3.680209919999 36 1 36 666 16206
vector 146  Generic_Access_BPLC_No1.IKTGateway2_4.eth[0].mac  framesReceivedOK  ETV
146	15126904 62140 3313 4135615 3.000209969999 57.040687249999 1943 1 1943 1888596 2446990884
146	33030641 48147 4139684 7253972 57.080687349999 99.680689049999 1459 1944 3402 3899907 10683263421
vector 148  Generic_Access_BPLC_No1.IKTGateway2_4.eth[0].mac  bytesReceivedOK  ETV
148	15190914 67816 3313 4135615 3.000209969999 57.040687249999 1943 64 1974386 1824600558 2.3996863016663e+15
148	33080220 52524 4139684 7253972 57.080687349999 99.680689049999 1459 1975456 3535516 4020254074 1.1374067687599e+16
vector 152  Generic_Access_BPLC_No1.IKTGateway2_4.eth[0].mac  framesPassedToHL  ETV
152	15319769 1020 3313 269554 3.000209969999 3.680209969999 36 1 36 666 16206
vector 126  Generic_Access_BPLC_No1.IKTGateway2_3.eth[0].mac  framesReceivedOK  ETV
126	14931416 62107 3318 4133581 3.000209969999 57.020687249999 1942 1 1942 1886653 2443215635
126	32878987 48180 4137648 7253973 57.060687249999 99.680689049999 1460 1943 3402 3901850 10687038670
vector 128  Generic_Access_BPLC_No1.IKTGateway2_3.eth[0].mac  bytesReceivedOK  ETV
128	14995393 67780 3318 4133581 3.000209969999 57.020687249999 1942 64 1973316 1822624160 2.3957880882497e+15
128	32928599 52560 4137648 7253973 57.060687249999 99.680689049999 1460 1974386 3535516 4022228460 1.1377965887676e+16
vector 132  Generic_Access_BPLC_No1.IKTGateway2_3.eth[0].mac  framesPassedToHL  ETV
132	15124179 1020 3318 269559 3.000209969999 3.680209969999 36 1 36 666 16206
vector 106  Generic_Access_BPLC_No1.IKTGateway2_2.eth[0].mac  framesReceivedOK  ETV
106	14735928 62107 3323 4135614 3.000209969999 57.040687249999 1942 1 1942 1886653 2443215635
106	32727333 48180 4137649 7253974 57.060687249999 99.680689049999 1460 1943 3402 3901850 10687038670
vector 108  Generic_Access_BPLC_No1.IKTGateway2_2.eth[0].mac  bytesReceivedOK  ETV
108	14799905 67780 3323 4135614 3.000209969999 57.040687249999 1942 64 1973316 1822622148 2.3957880799885e+15
108	32776945 52560 4137649 7253974 57.060687249999 99.680689049999 1460 1974386 3535516 4022228460 1.1377965887676e+16
vector 112  Generic_Access_BPLC_No1.IKTGateway2_2.eth[0].mac  framesPassedToHL  ETV
112	14928691 1020 3323 269564 3.000209969999 3.680209969999 36 1 36 666 16206
vector 5  Generic_Access_BPLC_No1.IKTGateway2_1.eth[0].mac  framesReceivedOK  ETV
5	23916 58225 3328 4135616 3.000209969999 57.040687249999 1942 1 1942 1886653 2443215635
5	21383288 45260 4137650 7253975 57.060687249999 99.680689049999 1460 1943 3402 3901850 10687038670
vector 7  Generic_Access_BPLC_No1.IKTGateway2_1.eth[0].mac  bytesReceivedOK  ETV
7	83897 63896 3328 4135616 3.000209969999 57.040687249999 1942 64 1973316 1822620136 2.3957880768055e+15
7	21429896 49640 4137650 7253975 57.060687249999 99.680689049999 1460 1974386 3535516 4022228460 1.1377965887676e+16
vector 11  Generic_Access_BPLC_No1.IKTGateway2_1.eth[0].mac  framesPassedToHL  ETV
11	206896 983 3328 269569 3.000209969999 3.680209969999 36 1 36 666 16206
vector 4  Generic_Access_BPLC_No1.IKTGateway2_1.eth[0].mac  framesSent  ETV
4	22325 1591 3339 4131148 3.000216689998 57.000597169998 56 1 56 1596 60116
4	21382070 1218 4203838 7184317 58.000597169998 99.000597169998 42 57 98 3255 258433
vector 6  Generic_Access_BPLC_No1.IKTGateway2_1.eth[0].mac  bytesSent  ETV
6	82141 1756 3339 4131148 3.000216689998 57.000597169998 56 64 58914 1651384 65447549776
6	21428548 1348 4203838 7184317 58.000597169998 99.000597169998 42 59984 103854 3440598 288914953012
vector 111  Generic_Access_BPLC_No1.IKTGateway2_2.eth[0].mac  framesDroppedNotForUs  ETV
111	14867685 61006 3738 4135614 3.000406769999 57.040687249999 1906 1 1906 1817371 2309878541
111	32829505 48180 4137649 7253974 57.060687249999 99.680689049999 1460 1907 3366 3849290 10407997630
vector 131  Generic_Access_BPLC_No1.IKTGateway2_3.eth[0].mac  framesDroppedNotForUs  ETV
131	15063173 61006 3739 4133581 3.000406769999 57.020687249999 1906 1 1906 1817371 2309878541
131	32981159 48180 4137648 7253973 57.060687249999 99.680689049999 1460 1907 3366 3849290 10407997630