file 2114947 1293105096                                         
version 2
run General-0-20101223-11:51:12-19424
attr configname General
attr datetime 20101223-11:51:12
attr experiment General
attr inifile /home/edema/workspace/libPowerlineBasic/simulations/G3_with_DS2.ini
attr iterationvars ""
attr iterationvars2 $repetition=0
attr measurement ""
attr network simulations.G3_with_DS2
attr processid 19424
attr repetition 0
attr replication #0
attr resultdir results
attr runnumber 0
attr seedset 0
vector 147  G3_with_DS2.dataCollector  datarate_PLC_Vector  ETV
147	482236 90761 5371 7746158 3 599.504 2416 0.015273357359071 0.020149335493982 42.55160714462 0.75103415254447
vector 149  G3_with_DS2.dataCollector  PER_PLC_Vector  ETV
149	596993 52334 5371 7746158 3 599.504 2416 0 0 0 0
vector 150  G3_with_DS2.dataCollector  higherLayerOffsetVector_PLC  ETV
150	649327 52394 5374 7746160 3 599.504 2416 0 3000 40000 96000000
vector 108  G3_with_DS2.IKTGateway2_1.eth[0].mac  framesSent  ETV
108	168016 357 5394 6494437 3.000006719999 503.000613439998 12 1 12 78 650
vector 110  G3_with_DS2.IKTGateway2_1.eth[0].mac  bytesSent  ETV
110	176425 377 5394 6494437 3.000006719999 503.000613439998 12 64 768 4992 2662400
vector 126  G3_with_DS2.IKTGateway2_2.eth[0].mac  framesSent  ETV
126	213660 357 5400 6494443 3.000006719999 503.000613439998 12 1 12 78 650
vector 128  G3_with_DS2.IKTGateway2_2.eth[0].mac  bytesSent  ETV
128	222069 377 5400 6494443 3.000006719999 503.000613439998 12 64 768 4992 2662400
vector 169  G3_with_DS2.Kunden_PC.eth[0].mac  framesSent  ETV
169	1076976 176 5406 6238353 3.000006719999 483.300442208311 6 1 6 21 91
vector 171  G3_with_DS2.Kunden_PC.eth[0].mac  bytesSent  ETV
171	1277313 187 5406 6238353 3.000006719999 483.300442208311 6 64 384 1344 372736
vector 194  G3_with_DS2.Kunden_DSL_Router.eth[0].mac  framesReceivedOK  ETV
194	1896121 172 5427 6238374 3.000116332078 483.30055082039 6 1 6 21 91
vector 196  G3_with_DS2.Kunden_DSL_Router.eth[0].mac  bytesReceivedOK  ETV
196	2114592 183 5427 6238374 3.000116332078 483.30055082039 6 64 384 1344 372736
vector 200  G3_with_DS2.Kunden_DSL_Router.eth[0].mac  framesPassedToHL  ETV
200	2114775 172 5427 6238374 3.000116332078 483.30055082039 6 1 6 21 91
vector 193  G3_with_DS2.Kunden_DSL_Router.eth[0].mac  framesSent  ETV
193	1695960 200161 5438 7751032 3.000123052077 599.900416436233 5975 1 5975 17853300 71121596100
vector 195  G3_with_DS2.Kunden_DSL_Router.eth[0].mac  bytesSent  ETV
195	1896293 218299 5438 7751032 3.000123052077 599.900416436233 5975 64 7438940 22224102462 1.102183869658e+17
vector 146  G3_with_DS2.dataCollector  datarate_BPLC_Vector  ETV
146	445155 37081 5457 7732805 3.0002 598.5008 1048 2.493499333045 145.54964172916 27007.071668446 1416027.7688808
vector 148  G3_with_DS2.dataCollector  PER_BPLC_Vector  ETV
148	572997 23996 5457 7732805 3.0002 598.5008 1048 0 0 0 0
vector 142  G3_with_DS2.dataCollector  runTimeVector_BPLC  ETV
142	241557 32464 5460 7732807 3.0002 598.5008 1032 38.66667 393.280001 180779.04236 32936164.770699
vector 144  G3_with_DS2.dataCollector  runTimeVector_clean_BPLC  ETV
144	333533 33046 5460 7732807 3.0002 598.5008 1032 91.705148 1866.666669 875738.950602 1104662151.9802
vector 163  G3_with_DS2.dataCollector  priorityVector_BPLC  ETV
163	792673 23500 5460 7732807 3.0002 598.5008 1032 1 4 2358 5906
vector 151  G3_with_DS2.dataCollector  higherLayerOffsetVector_BPLC  ETV
151	701721 33340 5460 7732807 3.0002 598.5008 1048 6.719999 480.106664 113927.678956 15816055.506783
vector 59  G3_with_DS2.Geschirrspueler1.eth[0].mac  framesReceivedOK  ETV
59	89690 4214 5483 7732829 3.000206719999 598.500901279999 137 1 137 9453 866525
vector 61  G3_with_DS2.Geschirrspueler1.eth[0].mac  bytesReceivedOK  ETV
61	98139 4622 5483 7732829 3.000206719999 598.500901279999 137 64 150608 10063356 1008079877432
vector 65  G3_with_DS2.Geschirrspueler1.eth[0].mac  framesPassedToHL  ETV
65	106637 318 5483 6494555 3.000206719999 503.000806719999 11 1 11 66 506
vector 43  G3_with_DS2.Waschmaschine1.eth[0].mac  framesReceivedOK  ETV
43	68581 4212 5493 7726000 3.000206719999 598.000901279999 137 1 137 9453 866525
vector 45  G3_with_DS2.Waschmaschine1.eth[0].mac  bytesReceivedOK  ETV
45	77030 4622 5493 7726000 3.000206719999 598.000901279999 137 64 150608 10075176 1009557732032
vector 49  G3_with_DS2.Waschmaschine1.eth[0].mac  framesPassedToHL  ETV
49	85525 319 5493 6494402 3.000206719999 503.000606719999 11 1 11 66 506
vector 58  G3_with_DS2.Geschirrspueler1.eth[0].mac  framesSent  ETV
58	85844 3846 5508 7725899 3.000213439998 598.000607999998 125 1 125 7875 658875
vector 60  G3_with_DS2.Geschirrspueler1.eth[0].mac  bytesSent  ETV
60	93904 4235 5508 7725899 3.000213439998 598.000607999998 125 64 149840 9380820 939007168200
vector 170  G3_with_DS2.Kunden_PC.eth[0].mac  framesReceivedOK  ETV
170	1077152 200161 5523 7751064 3.000234664156 599.900757298376 5975 1 5975 17853300 71121596100
vector 172  G3_with_DS2.Kunden_PC.eth[0].mac  bytesReceivedOK  ETV
172	1277500 218299 5523 7751064 3.000234664156 599.900757298376 5975 64 7438940 22224102462 1.102183869658e+17
vector 176  G3_with_DS2.Kunden_PC.eth[0].mac  framesPassedToHL  ETV
176	1495799 200161 5523 7751064 3.000234664156 599.900757298376 5975 1 5975 17853300 71121596100
vector 48  G3_with_DS2.Waschmaschine1.eth[0].mac  framesDroppedNotForUs  ETV
48	81652 3873 5645 7726000 3.000406719999 598.000901279999 126 1 126 8001 674751
vector 109  G3_with_DS2.IKTGateway2_1.eth[0].mac  framesReceivedOK  ETV
109	168373 8052 5647 7732831 3.000406719999 598.500901279999 250 1 250 31375 5239625
vector 111  G3_with_DS2.IKTGateway2_1.eth[0].mac  bytesReceivedOK  ETV
111	176802 8815 5647 7732831 3.000406719999 598.500901279999 250 64 299680 37369894 7465498462292
vector 115  G3_with_DS2.IKTGateway2_1.eth[0].mac  framesPassedToHL  ETV
115	185617 8052 5647 7732831 3.000406719999 598.500901279999 250 1 250 31375 5239625
vector 91  G3_with_DS2.Geschirrspueler2.eth[0].mac  framesReceivedOK  ETV
91	131792 4214 5657 7732839 3.000406719999 598.500901279999 137 1 137 9453 866525
vector 93  G3_with_DS2.Geschirrspueler2.eth[0].mac  bytesReceivedOK  ETV
93	140121 4622 5657 7732839 3.000406719999 598.500901279999 137 64 150608 10063356 1008079877432
vector 97  G3_with_DS2.Geschirrspueler2.eth[0].mac  framesPassedToHL  ETV
97	148619 318 5657 6494494 3.000406719999 503.000706719999 11 1 11 66 506
vector 75  G3_with_DS2.Waschmaschine2.eth[0].mac  framesReceivedOK  ETV
75	110803 4212 5667 7726010 3.000406719999 598.000901279999 137 1 137 9453 866525
vector 77  G3_with_DS2.Waschmaschine2.eth[0].mac  bytesReceivedOK  ETV
77	119252 4622 5667 7726010 3.000406719999 598.000901279999 137 64 150608 10075176 1009557732032
vector 81  G3_with_DS2.Waschmaschine2.eth[0].mac  framesPassedToHL  ETV
81	127747 319 5667 6494418 3.000406719999 503.000606719999 11 1 11 66 506
vector 90  G3_with_DS2.Geschirrspueler2.eth[0].mac  framesSent  ETV
90	128066 3726 5682 7725905 3.000413439998 598.00064133333 125 1 125 7875 658875
vector 92  G3_with_DS2.Geschirrspueler2.eth[0].mac  bytesSent  ETV
92	136006 4115 5682 7725905 3.000413439998 598.00064133333 125 64 149840 9380820 939007168200
vector 80  G3_with_DS2.Waschmaschine2.eth[0].mac  framesDroppedNotForUs  ETV
80	123874 3873 5731 7726010 3.000473386665 598.000901279999 126 1 126 8001 674751
vector 127  G3_with_DS2.IKTGateway2_2.eth[0].mac  framesReceivedOK  ETV
127	214017 8052 5733 7732841 3.000473386665 598.500901279999 250 1 250 31375 5239625
vector 129  G3_with_DS2.IKTGateway2_2.eth[0].mac  bytesReceivedOK  ETV
129	222446 8815 5733 7732841 3.000473386665 598.500901279999 250 64 299680 37369894 7465498462292
vector 133  G3_with_DS2.IKTGateway2_2.eth[0].mac  framesPassedToHL  ETV
133	231261 8052 5733 7732841 3.000473386665 598.500901279999 250 1 250 31375 5239625
vector 164  G3_with_DS2.Kunden_PC.udpApp[0]  "video stream eed"  ETV
164	816173 260803 6006 7751069 3.000743378376 599.900757298376 5970 0.000400302142 0.000679806298 2.598354164364 0.0011321587489896
vector 102  G3_with_DS2.IKTGateway2_1.udpApp[0]  "video stream eed"  ETV
102	148937 9559 6025 7732836 3.000767946665 598.500901279999 240 0.000261226666 0.000502559998 0.095291733316 3.7962857682777e-05
vector 120  G3_with_DS2.IKTGateway2_2.udpApp[0]  "video stream eed"  ETV
120	193669 10015 6035 7732846 3.000781279999 598.500901279999 240 0.000241226668 0.000461226666 0.090857733488 3.4547709952753e-05
vector 143  G3_with_DS2.dataCollector  runTimeVector_PLC  ETV
143	274021 59512 6675 7746160 3.002 599.504 2412 1000 2000 2424000 2448000000
vector 145  G3_with_DS2.dataCollector  runTimeVector_clean_PLC  ETV
145	366579 78576 6675 7746160 3.002 599.504 2412 23270.81459 82210.945033 171590990.91729 12281378155821
vector 162  G3_with_DS2.dataCollector  priorityVector_PLC  ETV
162	740397 52276 6675 7746160 3.002 599.504 2412 1 1 2412 2412
vector 20  G3_with_DS2.G3_DC_1.g3_Host.udpApp[0]  "video stream eed"  ETV
20	5805 29474 7774 7746163 3.004 599.504 1194 0.001 0.004 1.206 0.001254
vector 42  G3_with_DS2.Waschmaschine1.eth[0].mac  framesSent  ETV
42	64733 3848 14380 7732728 3.500213439998 598.500607999998 125 1 125 7875 658875
vector 44  G3_with_DS2.Waschmaschine1.eth[0].mac  bytesSent  ETV
44	72793 4237 14380 7732728 3.500213439998 598.500607999998 125 64 149840 9376092 938274857736
vector 74  G3_with_DS2.Waschmaschine2.eth[0].mac  framesSent  ETV
74	106955 3848 14386 7732734 3.500213439998 598.500607999998 125 1 125 7875 658875
vector 76  G3_with_DS2.Waschmaschine2.eth[0].mac  bytesSent  ETV
76	115015 4237 14386 7732734 3.500213439998 598.500607999998 125 64 149840 9376092 938274857736
vector 64  G3_with_DS2.Geschirrspueler1.eth[0].mac  framesDroppedNotForUs  ETV
64	102761 3876 14469 7732829 3.500406719999 598.500901279999 126 1 126 8001 674751
vector 96  G3_with_DS2.Geschirrspueler2.eth[0].mac  framesDroppedNotForUs  ETV
96	144743 3876 14481 7732839 3.500406719999 598.500901279999 126 1 126 8001 674751
vector 121  G3_with_DS2.IKTGateway2_2.udpApp[1]  "video stream eed"  ETV
121	203684 9976 14763 7732847 3.500751279999 598.500901279999 239 0.00024456 0.000461226666 0.09061650682 3.4489519647398e-05
vector 103  G3_with_DS2.IKTGateway2_1.udpApp[1]  "video stream eed"  ETV
103	158496 9520 14780 7732837 3.500767946665 598.500901279999 239 0.000261226666 0.000502559998 0.09503050665 3.7894618311748e-05
vector 21  G3_with_DS2.G3_DC_1.g3_Host.udpApp[1]  "video stream eed"  ETV
21	35279 29454 16201 7746164 3.504 599.504 1193 0.001 0.004 1.205 0.001253
vector 139  G3_with_DS2.dataCollector  numMessages_PLC  ETV
139	239929 598 359243 7622726 30 590 29 203 5917 88719 356107655
vector 141  G3_with_DS2.dataCollector  packetsLost_PLC  ETV
141	241042 515 359243 7622726 30 590 29 0 0 0 0
vector 152  G3_with_DS2.dataCollector  numCollisions_PLC_Vector  ETV
152	735061 515 359243 7622726 30 590 29 0 0 0 0
vector 153  G3_with_DS2.dataCollector  numBackoffs_PLC_Vector  ETV
153	735576 515 359243 7622726 30 590 29 0 0 0 0
vector 154  G3_with_DS2.dataCollector  totalChannelIdleTime_PLC_Vector  ETV
154	736091 701 359243 7622726 30 590 29 60.011 1740.011 26100.319 30798574.203509
vector 155  G3_with_DS2.dataCollector  totalSuccessfulRxTxTime_PLC_Vector  ETV
155	736792 515 359243 7622726 30 590 29 0 0 0 0
vector 156  G3_with_DS2.dataCollector  totalCollisionTime_PLC_Vector  ETV
156	737307 515 359243 7622726 30 590 29 0 0 0 0
vector 138  G3_with_DS2.dataCollector  numMessages_BPLC  ETV
138	239313 616 359243 7622726 30 590 29 651 19786 296246 3976209250
vector 140  G3_with_DS2.dataCollector  packetsLost_BPLC  ETV
140	240527 515 359243 7622726 30 590 29 0 0 0 0
vector 157  G3_with_DS2.dataCollector  numCollisions_BPLC_Vector  ETV
157	737822 515 359243 7622726 30 590 29 0 0 0 0
vector 158  G3_with_DS2.dataCollector  numBackoffs_BPLC_Vector  ETV
158	738337 515 359243 7622726 30 590 29 0 0 0 0
vector 159  G3_with_DS2.dataCollector  totalChannelIdleTime_BPLC_Vector  ETV
159	738852 515 359243 7622726 30 590 29 0 0 0 0
vector 160  G3_with_DS2.dataCollector  totalSuccessfulRxTxTime_BPLC_Vector  ETV
160	739367 515 359243 7622726 30 590 29 0 0 0 0
vector 161  G3_with_DS2.dataCollector  totalCollisionTime_BPLC_Vector  ETV
161	739882 515 359243 7622726 30 590 29 0 0 0 0
