file 73518 1391617004                                           
version 2
run DYMOUM-0-20140121-11:32:23-13388
attr configname DYMOUM
attr datetime 20140121-11:32:23
attr experiment DYMOUM
attr inifile omnetpp.ini
attr iterationvars ""
attr iterationvars2 $repetition=0
attr measurement ""
attr network inet.examples.manetrouting.net80211_aodv.Net80211_aodv
attr processid 13388
attr repetition 0
attr replication #0
attr resultdir results
attr runnumber 0
attr seedset 0
vector 14  Net80211_aodv.fixhost[0].wlan[0].mgmt  dataQueueLen:vector  ETV
attr interpolationmode sample-hold
attr title "data queue length, vector"
14	56600 9 0 0 0 0 1 0 0 0 0
vector 41  Net80211_aodv.host[0].wlan[0].mgmt  dataQueueLen:vector  ETV
attr interpolationmode sample-hold
attr title "data queue length, vector"
41	56671 9 0 0 0 0 1 0 0 0 0
vector 58  Net80211_aodv.host[1].wlan[0].mgmt  dataQueueLen:vector  ETV
attr interpolationmode sample-hold
attr title "data queue length, vector"
58	57024 9 0 0 0 0 1 0 0 0 0
vector 75  Net80211_aodv.host[2].wlan[0].mgmt  dataQueueLen:vector  ETV
attr interpolationmode sample-hold
attr title "data queue length, vector"
75	57067 9 0 0 0 0 1 0 0 0 0
vector 92  Net80211_aodv.host[3].wlan[0].mgmt  dataQueueLen:vector  ETV
attr interpolationmode sample-hold
attr title "data queue length, vector"
92	57110 9 0 0 0 0 1 0 0 0 0
vector 109  Net80211_aodv.host[4].wlan[0].mgmt  dataQueueLen:vector  ETV
attr interpolationmode sample-hold
attr title "data queue length, vector"
109	57362 10 0 0 0 0 1 0 0 0 0
vector 126  Net80211_aodv.host[5].wlan[0].mgmt  dataQueueLen:vector  ETV
attr interpolationmode sample-hold
attr title "data queue length, vector"
126	57409 10 0 0 0 0 1 0 0 0 0
vector 143  Net80211_aodv.host[6].wlan[0].mgmt  dataQueueLen:vector  ETV
attr interpolationmode sample-hold
attr title "data queue length, vector"
143	57592 10 0 0 0 0 1 0 0 0 0
vector 160  Net80211_aodv.host[7].wlan[0].mgmt  dataQueueLen:vector  ETV
attr interpolationmode sample-hold
attr title "data queue length, vector"
160	57639 10 0 0 0 0 1 0 0 0 0
vector 177  Net80211_aodv.host[8].wlan[0].mgmt  dataQueueLen:vector  ETV
attr interpolationmode sample-hold
attr title "data queue length, vector"
177	57686 10 0 0 0 0 1 0 0 0 0
vector 194  Net80211_aodv.host[9].wlan[0].mgmt  dataQueueLen:vector  ETV
attr interpolationmode sample-hold
attr title "data queue length, vector"
194	57733 10 0 0 0 0 1 0 0 0 0
vector 211  Net80211_aodv.host[10].wlan[0].mgmt  dataQueueLen:vector  ETV
attr interpolationmode sample-hold
attr title "data queue length, vector"
211	57780 10 0 0 0 0 1 0 0 0 0
vector 228  Net80211_aodv.host[11].wlan[0].mgmt  dataQueueLen:vector  ETV
attr interpolationmode sample-hold
attr title "data queue length, vector"
228	58149 10 0 0 0 0 1 0 0 0 0
vector 245  Net80211_aodv.host[12].wlan[0].mgmt  dataQueueLen:vector  ETV
attr interpolationmode sample-hold
attr title "data queue length, vector"
245	58514 10 0 0 0 0 1 0 0 0 0
vector 262  Net80211_aodv.host[13].wlan[0].mgmt  dataQueueLen:vector  ETV
attr interpolationmode sample-hold
attr title "data queue length, vector"
262	58561 10 0 0 0 0 1 0 0 0 0
vector 279  Net80211_aodv.host[14].wlan[0].mgmt  dataQueueLen:vector  ETV
attr interpolationmode sample-hold
attr title "data queue length, vector"
279	58608 10 0 0 0 0 1 0 0 0 0
vector 296  Net80211_aodv.host[15].wlan[0].mgmt  dataQueueLen:vector  ETV
attr interpolationmode sample-hold
attr title "data queue length, vector"
296	58655 10 0 0 0 0 1 0 0 0 0
vector 313  Net80211_aodv.host[16].wlan[0].mgmt  dataQueueLen:vector  ETV
attr interpolationmode sample-hold
attr title "data queue length, vector"
313	59024 10 0 0 0 0 1 0 0 0 0
vector 330  Net80211_aodv.host[17].wlan[0].mgmt  dataQueueLen:vector  ETV
attr interpolationmode sample-hold
attr title "data queue length, vector"
330	59071 10 0 0 0 0 1 0 0 0 0
vector 347  Net80211_aodv.host[18].wlan[0].mgmt  dataQueueLen:vector  ETV
attr interpolationmode sample-hold
attr title "data queue length, vector"
347	59118 10 0 0 0 0 1 0 0 0 0
vector 364  Net80211_aodv.host[19].wlan[0].mgmt  dataQueueLen:vector  ETV
attr interpolationmode sample-hold
attr title "data queue length, vector"
364	59165 10 0 0 0 0 1 0 0 0 0
vector 381  Net80211_aodv.host[20].wlan[0].mgmt  dataQueueLen:vector  ETV
attr interpolationmode sample-hold
attr title "data queue length, vector"
381	59212 10 0 0 0 0 1 0 0 0 0
vector 398  Net80211_aodv.host[21].wlan[0].mgmt  dataQueueLen:vector  ETV
attr interpolationmode sample-hold
attr title "data queue length, vector"
398	59259 10 0 0 0 0 1 0 0 0 0
vector 415  Net80211_aodv.host[22].wlan[0].mgmt  dataQueueLen:vector  ETV
attr interpolationmode sample-hold
attr title "data queue length, vector"
415	59306 10 0 0 0 0 1 0 0 0 0
vector 432  Net80211_aodv.host[23].wlan[0].mgmt  dataQueueLen:vector  ETV
attr interpolationmode sample-hold
attr title "data queue length, vector"
432	59353 10 0 0 0 0 1 0 0 0 0
vector 449  Net80211_aodv.host[24].wlan[0].mgmt  dataQueueLen:vector  ETV
attr interpolationmode sample-hold
attr title "data queue length, vector"
449	59400 10 0 0 0 0 1 0 0 0 0
vector 466  Net80211_aodv.host[25].wlan[0].mgmt  dataQueueLen:vector  ETV
attr interpolationmode sample-hold
attr title "data queue length, vector"
466	59765 10 0 0 0 0 1 0 0 0 0
vector 483  Net80211_aodv.host[26].wlan[0].mgmt  dataQueueLen:vector  ETV
attr interpolationmode sample-hold
attr title "data queue length, vector"
483	59812 10 0 0 0 0 1 0 0 0 0
vector 500  Net80211_aodv.host[27].wlan[0].mgmt  dataQueueLen:vector  ETV
attr interpolationmode sample-hold
attr title "data queue length, vector"
500	59859 10 0 0 0 0 1 0 0 0 0
vector 517  Net80211_aodv.host[28].wlan[0].mgmt  dataQueueLen:vector  ETV
attr interpolationmode sample-hold
attr title "data queue length, vector"
517	59906 10 0 0 0 0 1 0 0 0 0
vector 534  Net80211_aodv.host[29].wlan[0].mgmt  dataQueueLen:vector  ETV
attr interpolationmode sample-hold
attr title "data queue length, vector"
534	59953 10 0 0 0 0 1 0 0 0 0
vector 551  Net80211_aodv.host[30].wlan[0].mgmt  dataQueueLen:vector  ETV
attr interpolationmode sample-hold
attr title "data queue length, vector"
551	60000 10 0 0 0 0 1 0 0 0 0
vector 568  Net80211_aodv.host[31].wlan[0].mgmt  dataQueueLen:vector  ETV
attr interpolationmode sample-hold
attr title "data queue length, vector"
568	60097 10 0 0 0 0 1 0 0 0 0
vector 585  Net80211_aodv.host[32].wlan[0].mgmt  dataQueueLen:vector  ETV
attr interpolationmode sample-hold
attr title "data queue length, vector"
585	60144 10 0 0 0 0 1 0 0 0 0
vector 602  Net80211_aodv.host[33].wlan[0].mgmt  dataQueueLen:vector  ETV
attr interpolationmode sample-hold
attr title "data queue length, vector"
602	60191 10 0 0 0 0 1 0 0 0 0
vector 619  Net80211_aodv.host[34].wlan[0].mgmt  dataQueueLen:vector  ETV
attr interpolationmode sample-hold
attr title "data queue length, vector"
619	60238 10 0 0 0 0 1 0 0 0 0
vector 636  Net80211_aodv.host[35].wlan[0].mgmt  dataQueueLen:vector  ETV
attr interpolationmode sample-hold
attr title "data queue length, vector"
636	60497 10 0 0 0 0 1 0 0 0 0
vector 653  Net80211_aodv.host[36].wlan[0].mgmt  dataQueueLen:vector  ETV
attr interpolationmode sample-hold
attr title "data queue length, vector"
653	60544 10 0 0 0 0 1 0 0 0 0
vector 670  Net80211_aodv.host[37].wlan[0].mgmt  dataQueueLen:vector  ETV
attr interpolationmode sample-hold
attr title "data queue length, vector"
670	60913 10 0 0 0 0 1 0 0 0 0
vector 687  Net80211_aodv.host[38].wlan[0].mgmt  dataQueueLen:vector  ETV
attr interpolationmode sample-hold
attr title "data queue length, vector"
687	61282 10 0 0 0 0 1 0 0 0 0
vector 704  Net80211_aodv.host[39].wlan[0].mgmt  dataQueueLen:vector  ETV
attr interpolationmode sample-hold
attr title "data queue length, vector"
704	61329 10 0 0 0 0 1 0 0 0 0
vector 721  Net80211_aodv.host[40].wlan[0].mgmt  dataQueueLen:vector  ETV
attr interpolationmode sample-hold
attr title "data queue length, vector"
721	61376 10 0 0 0 0 1 0 0 0 0
vector 738  Net80211_aodv.host[41].wlan[0].mgmt  dataQueueLen:vector  ETV
attr interpolationmode sample-hold
attr title "data queue length, vector"
738	61423 10 0 0 0 0 1 0 0 0 0
vector 755  Net80211_aodv.host[42].wlan[0].mgmt  dataQueueLen:vector  ETV
attr interpolationmode sample-hold
attr title "data queue length, vector"
755	61470 10 0 0 0 0 1 0 0 0 0
vector 772  Net80211_aodv.host[43].wlan[0].mgmt  dataQueueLen:vector  ETV
attr interpolationmode sample-hold
attr title "data queue length, vector"
772	61517 10 0 0 0 0 1 0 0 0 0
vector 789  Net80211_aodv.host[44].wlan[0].mgmt  dataQueueLen:vector  ETV
attr interpolationmode sample-hold
attr title "data queue length, vector"
789	61564 10 0 0 0 0 1 0 0 0 0
vector 806  Net80211_aodv.host[45].wlan[0].mgmt  dataQueueLen:vector  ETV
attr interpolationmode sample-hold
attr title "data queue length, vector"
806	61611 10 0 0 0 0 1 0 0 0 0
vector 823  Net80211_aodv.host[46].wlan[0].mgmt  dataQueueLen:vector  ETV
attr interpolationmode sample-hold
attr title "data queue length, vector"
823	61658 10 0 0 0 0 1 0 0 0 0
vector 840  Net80211_aodv.host[47].wlan[0].mgmt  dataQueueLen:vector  ETV
attr interpolationmode sample-hold
attr title "data queue length, vector"
840	61705 10 0 0 0 0 1 0 0 0 0
vector 857  Net80211_aodv.host[48].wlan[0].mgmt  dataQueueLen:vector  ETV
attr interpolationmode sample-hold
attr title "data queue length, vector"
857	61752 10 0 0 0 0 1 0 0 0 0
vector 874  Net80211_aodv.host[49].wlan[0].mgmt  dataQueueLen:vector  ETV
attr interpolationmode sample-hold
attr title "data queue length, vector"
874	61799 10 0 0 0 0 1 0 0 0 0
vector 886  Net80211_aodv.fixhost[0].wlan[0].mac  RadioState  ETV
attr enum "IDLE=0, OFF=4, RECV=1, SLEEP=3, TRANSMIT=2"
attr enumname RadioState
886	62184 20 0 0 0 0 2 0 0 0 0
vector 885  Net80211_aodv.fixhost[0].wlan[0].mac  State  ETV
attr enum "BACKOFF=3, DEFER=1, IDLE=0, RECEIVE=8, WAITACK=4, WAITAIFS=2, WAITCTS=6, WAITMULTICAST=5, WAITSIFS=7"
attr enumname Ieee80211Mac
885	62164 20 0 0 0 0 2 0 0 0 0
vector 893  Net80211_aodv.host[0].wlan[0].mac  RadioState  ETV
attr enum "IDLE=0, OFF=4, RECV=1, SLEEP=3, TRANSMIT=2"
attr enumname RadioState
893	62900 332 0 923 0 10.003804532983 14 0 2 8 12
vector 892  Net80211_aodv.host[0].wlan[0].mac  State  ETV
attr enum "BACKOFF=3, DEFER=1, IDLE=0, RECEIVE=8, WAITACK=4, WAITAIFS=2, WAITCTS=6, WAITMULTICAST=5, WAITSIFS=7"
attr enumname Ieee80211Mac
892	62204 696 0 924 0 10.003804532983 28 0 5 36 136
vector 900  Net80211_aodv.host[1].wlan[0].mac  RadioState  ETV
attr enum "IDLE=0, OFF=4, RECV=1, SLEEP=3, TRANSMIT=2"
attr enumname RadioState
900	63318 20 0 0 0 0 2 0 0 0 0
vector 899  Net80211_aodv.host[1].wlan[0].mac  State  ETV
attr enum "BACKOFF=3, DEFER=1, IDLE=0, RECEIVE=8, WAITACK=4, WAITAIFS=2, WAITCTS=6, WAITMULTICAST=5, WAITSIFS=7"
attr enumname Ieee80211Mac
899	63298 20 0 0 0 0 2 0 0 0 0
vector 907  Net80211_aodv.host[2].wlan[0].mac  RadioState  ETV
attr enum "IDLE=0, OFF=4, RECV=1, SLEEP=3, TRANSMIT=2"
attr enumname RadioState
907	63358 20 0 0 0 0 2 0 0 0 0
vector 906  Net80211_aodv.host[2].wlan[0].mac  State  ETV
attr enum "BACKOFF=3, DEFER=1, IDLE=0, RECEIVE=8, WAITACK=4, WAITAIFS=2, WAITCTS=6, WAITMULTICAST=5, WAITSIFS=7"
attr enumname Ieee80211Mac
906	63338 20 0 0 0 0 2 0 0 0 0
vector 914  Net80211_aodv.host[3].wlan[0].mac  RadioState  ETV
attr enum "IDLE=0, OFF=4, RECV=1, SLEEP=3, TRANSMIT=2"
attr enumname RadioState
914	63704 224 0 915 0 10.00380447009 10 0 1 4 4
vector 913  Net80211_aodv.host[3].wlan[0].mac  State  ETV
attr enum "BACKOFF=3, DEFER=1, IDLE=0, RECEIVE=8, WAITACK=4, WAITAIFS=2, WAITCTS=6, WAITMULTICAST=5, WAITSIFS=7"
attr enumname Ieee80211Mac
913	63378 326 0 916 0 10.00380447009 14 0 0 0 0
vector 921  Net80211_aodv.host[4].wlan[0].mac  RadioState  ETV
attr enum "IDLE=0, OFF=4, RECV=1, SLEEP=3, TRANSMIT=2"
attr enumname RadioState
921	64013 20 0 0 0 0 2 0 0 0 0
vector 920  Net80211_aodv.host[4].wlan[0].mac  State  ETV
attr enum "BACKOFF=3, DEFER=1, IDLE=0, RECEIVE=8, WAITACK=4, WAITAIFS=2, WAITCTS=6, WAITMULTICAST=5, WAITSIFS=7"
attr enumname Ieee80211Mac
920	63993 20 0 0 0 0 2 0 0 0 0
vector 928  Net80211_aodv.host[5].wlan[0].mac  RadioState  ETV
attr enum "IDLE=0, OFF=4, RECV=1, SLEEP=3, TRANSMIT=2"
attr enumname RadioState
928	64261 124 0 763 0 10.003343928295 6 0 1 2 2
vector 927  Net80211_aodv.host[5].wlan[0].mac  State  ETV
attr enum "BACKOFF=3, DEFER=1, IDLE=0, RECEIVE=8, WAITACK=4, WAITAIFS=2, WAITCTS=6, WAITMULTICAST=5, WAITSIFS=7"
attr enumname Ieee80211Mac
927	64033 228 0 892 0 10.003789453439 10 0 2 2 4
vector 935  Net80211_aodv.host[6].wlan[0].mac  RadioState  ETV
attr enum "IDLE=0, OFF=4, RECV=1, SLEEP=3, TRANSMIT=2"
attr enumname RadioState
935	64471 20 0 0 0 0 2 0 0 0 0
vector 934  Net80211_aodv.host[6].wlan[0].mac  State  ETV
attr enum "BACKOFF=3, DEFER=1, IDLE=0, RECEIVE=8, WAITACK=4, WAITAIFS=2, WAITCTS=6, WAITMULTICAST=5, WAITSIFS=7"
attr enumname Ieee80211Mac
934	64451 20 0 0 0 0 2 0 0 0 0
vector 942  Net80211_aodv.host[7].wlan[0].mac  RadioState  ETV
attr enum "IDLE=0, OFF=4, RECV=1, SLEEP=3, TRANSMIT=2"
attr enumname RadioState
942	64511 20 0 0 0 0 2 0 0 0 0
vector 941  Net80211_aodv.host[7].wlan[0].mac  State  ETV
attr enum "BACKOFF=3, DEFER=1, IDLE=0, RECEIVE=8, WAITACK=4, WAITAIFS=2, WAITCTS=6, WAITMULTICAST=5, WAITSIFS=7"
attr enumname Ieee80211Mac
941	64491 20 0 0 0 0 2 0 0 0 0
vector 949  Net80211_aodv.host[8].wlan[0].mac  RadioState  ETV
attr enum "IDLE=0, OFF=4, RECV=1, SLEEP=3, TRANSMIT=2"
attr enumname RadioState
949	64551 20 0 0 0 0 2 0 0 0 0
vector 948  Net80211_aodv.host[8].wlan[0].mac  State  ETV
attr enum "BACKOFF=3, DEFER=1, IDLE=0, RECEIVE=8, WAITACK=4, WAITAIFS=2, WAITCTS=6, WAITMULTICAST=5, WAITSIFS=7"
attr enumname Ieee80211Mac
948	64531 20 0 0 0 0 2 0 0 0 0
vector 956  Net80211_aodv.host[9].wlan[0].mac  RadioState  ETV
attr enum "IDLE=0, OFF=4, RECV=1, SLEEP=3, TRANSMIT=2"
attr enumname RadioState
956	64591 20 0 0 0 0 2 0 0 0 0
vector 955  Net80211_aodv.host[9].wlan[0].mac  State  ETV
attr enum "BACKOFF=3, DEFER=1, IDLE=0, RECEIVE=8, WAITACK=4, WAITAIFS=2, WAITCTS=6, WAITMULTICAST=5, WAITSIFS=7"
attr enumname Ieee80211Mac
955	64571 20 0 0 0 0 2 0 0 0 0
vector 963  Net80211_aodv.host[10].wlan[0].mac  RadioState  ETV
attr enum "IDLE=0, OFF=4, RECV=1, SLEEP=3, TRANSMIT=2"
attr enumname RadioState
963	65099 332 0 919 0 10.003804521369 14 0 1 6 6
vector 962  Net80211_aodv.host[10].wlan[0].mac  State  ETV
attr enum "BACKOFF=3, DEFER=1, IDLE=0, RECEIVE=8, WAITACK=4, WAITAIFS=2, WAITCTS=6, WAITMULTICAST=5, WAITSIFS=7"
attr enumname Ieee80211Mac
962	64611 488 0 920 0 10.003804521369 20 0 0 0 0
vector 970  Net80211_aodv.host[11].wlan[0].mac  RadioState  ETV
attr enum "IDLE=0, OFF=4, RECV=1, SLEEP=3, TRANSMIT=2"
attr enumname RadioState
970	65979 328 0 911 0 10.003804249482 14 0 1 6 6
vector 969  Net80211_aodv.host[11].wlan[0].mac  State  ETV
attr enum "BACKOFF=3, DEFER=1, IDLE=0, RECEIVE=8, WAITACK=4, WAITAIFS=2, WAITCTS=6, WAITMULTICAST=5, WAITSIFS=7"
attr enumname Ieee80211Mac
969	65497 482 0 912 0 10.003804249482 20 0 0 0 0
vector 977  Net80211_aodv.host[12].wlan[0].mac  RadioState  ETV
attr enum "IDLE=0, OFF=4, RECV=1, SLEEP=3, TRANSMIT=2"
attr enumname RadioState
977	66393 20 0 0 0 0 2 0 0 0 0
vector 976  Net80211_aodv.host[12].wlan[0].mac  State  ETV
attr enum "BACKOFF=3, DEFER=1, IDLE=0, RECEIVE=8, WAITACK=4, WAITAIFS=2, WAITCTS=6, WAITMULTICAST=5, WAITSIFS=7"
attr enumname Ieee80211Mac
976	66373 20 0 0 0 0 2 0 0 0 0
vector 984  Net80211_aodv.host[13].wlan[0].mac  RadioState  ETV
attr enum "IDLE=0, OFF=4, RECV=1, SLEEP=3, TRANSMIT=2"
attr enumname RadioState
984	66433 20 0 0 0 0 2 0 0 0 0
vector 983  Net80211_aodv.host[13].wlan[0].mac  State  ETV
attr enum "BACKOFF=3, DEFER=1, IDLE=0, RECEIVE=8, WAITACK=4, WAITAIFS=2, WAITCTS=6, WAITMULTICAST=5, WAITSIFS=7"
attr enumname Ieee80211Mac
983	66413 20 0 0 0 0 2 0 0 0 0
vector 991  Net80211_aodv.host[14].wlan[0].mac  RadioState  ETV
attr enum "IDLE=0, OFF=4, RECV=1, SLEEP=3, TRANSMIT=2"
attr enumname RadioState
991	66473 20 0 0 0 0 2 0 0 0 0
vector 990  Net80211_aodv.host[14].wlan[0].mac  State  ETV
attr enum "BACKOFF=3, DEFER=1, IDLE=0, RECEIVE=8, WAITACK=4, WAITAIFS=2, WAITCTS=6, WAITMULTICAST=5, WAITSIFS=7"
attr enumname Ieee80211Mac
990	66453 20 0 0 0 0 2 0 0 0 0
vector 998  Net80211_aodv.host[15].wlan[0].mac  RadioState  ETV
attr enum "IDLE=0, OFF=4, RECV=1, SLEEP=3, TRANSMIT=2"
attr enumname RadioState
998	66981 332 0 895 0 10.003803826093 14 0 1 6 6
vector 997  Net80211_aodv.host[15].wlan[0].mac  State  ETV
attr enum "BACKOFF=3, DEFER=1, IDLE=0, RECEIVE=8, WAITACK=4, WAITAIFS=2, WAITCTS=6, WAITMULTICAST=5, WAITSIFS=7"
attr enumname Ieee80211Mac
997	66493 488 0 896 0 10.003803826093 20 0 0 0 0
vector 1005  Net80211_aodv.host[16].wlan[0].mac  RadioState  ETV
attr enum "IDLE=0, OFF=4, RECV=1, SLEEP=3, TRANSMIT=2"
attr enumname RadioState
1005	67403 22 0 0 0 0 2 0 0 0 0
vector 1004  Net80211_aodv.host[16].wlan[0].mac  State  ETV
attr enum "BACKOFF=3, DEFER=1, IDLE=0, RECEIVE=8, WAITACK=4, WAITAIFS=2, WAITCTS=6, WAITMULTICAST=5, WAITSIFS=7"
attr enumname Ieee80211Mac
1004	67381 22 0 0 0 0 2 0 0 0 0
vector 1012  Net80211_aodv.host[17].wlan[0].mac  RadioState  ETV
attr enum "IDLE=0, OFF=4, RECV=1, SLEEP=3, TRANSMIT=2"
attr enumname RadioState
1012	67447 22 0 0 0 0 2 0 0 0 0
vector 1011  Net80211_aodv.host[17].wlan[0].mac  State  ETV
attr enum "BACKOFF=3, DEFER=1, IDLE=0, RECEIVE=8, WAITACK=4, WAITAIFS=2, WAITCTS=6, WAITMULTICAST=5, WAITSIFS=7"
attr enumname Ieee80211Mac
1011	67425 22 0 0 0 0 2 0 0 0 0
vector 1019  Net80211_aodv.host[18].wlan[0].mac  RadioState  ETV
attr enum "IDLE=0, OFF=4, RECV=1, SLEEP=3, TRANSMIT=2"
attr enumname RadioState
1019	67491 22 0 0 0 0 2 0 0 0 0
vector 1018  Net80211_aodv.host[18].wlan[0].mac  State  ETV
attr enum "BACKOFF=3, DEFER=1, IDLE=0, RECEIVE=8, WAITACK=4, WAITAIFS=2, WAITCTS=6, WAITMULTICAST=5, WAITSIFS=7"
attr enumname Ieee80211Mac
1018	67469 22 0 0 0 0 2 0 0 0 0
vector 1026  Net80211_aodv.host[19].wlan[0].mac  RadioState  ETV
attr enum "IDLE=0, OFF=4, RECV=1, SLEEP=3, TRANSMIT=2"
attr enumname RadioState
1026	67535 22 0 0 0 0 2 0 0 0 0
vector 1025  Net80211_aodv.host[19].wlan[0].mac  State  ETV
attr enum "BACKOFF=3, DEFER=1, IDLE=0, RECEIVE=8, WAITACK=4, WAITAIFS=2, WAITCTS=6, WAITMULTICAST=5, WAITSIFS=7"
attr enumname Ieee80211Mac
1025	67513 22 0 0 0 0 2 0 0 0 0
vector 1033  Net80211_aodv.host[20].wlan[0].mac  RadioState  ETV
attr enum "IDLE=0, OFF=4, RECV=1, SLEEP=3, TRANSMIT=2"
attr enumname RadioState
1033	67579 22 0 0 0 0 2 0 0 0 0
vector 1032  Net80211_aodv.host[20].wlan[0].mac  State  ETV
attr enum "BACKOFF=3, DEFER=1, IDLE=0, RECEIVE=8, WAITACK=4, WAITAIFS=2, WAITCTS=6, WAITMULTICAST=5, WAITSIFS=7"
attr enumname Ieee80211Mac
1032	67557 22 0 0 0 0 2 0 0 0 0
vector 1040  Net80211_aodv.host[21].wlan[0].mac  RadioState  ETV
attr enum "IDLE=0, OFF=4, RECV=1, SLEEP=3, TRANSMIT=2"
attr enumname RadioState
1040	67623 22 0 0 0 0 2 0 0 0 0
vector 1039  Net80211_aodv.host[21].wlan[0].mac  State  ETV
attr enum "BACKOFF=3, DEFER=1, IDLE=0, RECEIVE=8, WAITACK=4, WAITAIFS=2, WAITCTS=6, WAITMULTICAST=5, WAITSIFS=7"
attr enumname Ieee80211Mac
1039	67601 22 0 0 0 0 2 0 0 0 0
vector 1047  Net80211_aodv.host[22].wlan[0].mac  RadioState  ETV
attr enum "IDLE=0, OFF=4, RECV=1, SLEEP=3, TRANSMIT=2"
attr enumname RadioState
1047	67667 22 0 0 0 0 2 0 0 0 0
vector 1046  Net80211_aodv.host[22].wlan[0].mac  State  ETV
attr enum "BACKOFF=3, DEFER=1, IDLE=0, RECEIVE=8, WAITACK=4, WAITAIFS=2, WAITCTS=6, WAITMULTICAST=5, WAITSIFS=7"
attr enumname Ieee80211Mac
1046	67645 22 0 0 0 0 2 0 0 0 0
vector 1054  Net80211_aodv.host[23].wlan[0].mac  RadioState  ETV
attr enum "IDLE=0, OFF=4, RECV=1, SLEEP=3, TRANSMIT=2"
attr enumname RadioState
1054	67711 22 0 0 0 0 2 0 0 0 0
vector 1053  Net80211_aodv.host[23].wlan[0].mac  State  ETV
attr enum "BACKOFF=3, DEFER=1, IDLE=0, RECEIVE=8, WAITACK=4, WAITAIFS=2, WAITCTS=6, WAITMULTICAST=5, WAITSIFS=7"
attr enumname Ieee80211Mac
1053	67689 22 0 0 0 0 2 0 0 0 0
vector 1061  Net80211_aodv.host[24].wlan[0].mac  RadioState  ETV
attr enum "IDLE=0, OFF=4, RECV=1, SLEEP=3, TRANSMIT=2"
attr enumname RadioState
1061	68235 342 0 907 0 10.003804112866 14 0 1 6 6
vector 1060  Net80211_aodv.host[24].wlan[0].mac  State  ETV
attr enum "BACKOFF=3, DEFER=1, IDLE=0, RECEIVE=8, WAITACK=4, WAITAIFS=2, WAITCTS=6, WAITMULTICAST=5, WAITSIFS=7"
attr enumname Ieee80211Mac
1060	67733 502 0 908 0 10.003804112866 20 0 0 0 0
vector 1068  Net80211_aodv.host[25].wlan[0].mac  RadioState  ETV
attr enum "IDLE=0, OFF=4, RECV=1, SLEEP=3, TRANSMIT=2"
attr enumname RadioState
1068	68665 22 0 0 0 0 2 0 0 0 0
vector 1067  Net80211_aodv.host[25].wlan[0].mac  State  ETV
attr enum "BACKOFF=3, DEFER=1, IDLE=0, RECEIVE=8, WAITACK=4, WAITAIFS=2, WAITCTS=6, WAITMULTICAST=5, WAITSIFS=7"
attr enumname Ieee80211Mac
1067	68643 22 0 0 0 0 2 0 0 0 0
vector 1075  Net80211_aodv.host[26].wlan[0].mac  RadioState  ETV
attr enum "IDLE=0, OFF=4, RECV=1, SLEEP=3, TRANSMIT=2"
attr enumname RadioState
1075	68709 22 0 0 0 0 2 0 0 0 0
vector 1074  Net80211_aodv.host[26].wlan[0].mac  State  ETV
attr enum "BACKOFF=3, DEFER=1, IDLE=0, RECEIVE=8, WAITACK=4, WAITAIFS=2, WAITCTS=6, WAITMULTICAST=5, WAITSIFS=7"
attr enumname Ieee80211Mac
1074	68687 22 0 0 0 0 2 0 0 0 0
vector 1082  Net80211_aodv.host[27].wlan[0].mac  RadioState  ETV
attr enum "IDLE=0, OFF=4, RECV=1, SLEEP=3, TRANSMIT=2"
attr enumname RadioState
1082	68753 22 0 0 0 0 2 0 0 0 0
vector 1081  Net80211_aodv.host[27].wlan[0].mac  State  ETV
attr enum "BACKOFF=3, DEFER=1, IDLE=0, RECEIVE=8, WAITACK=4, WAITAIFS=2, WAITCTS=6, WAITMULTICAST=5, WAITSIFS=7"
attr enumname Ieee80211Mac
1081	68731 22 0 0 0 0 2 0 0 0 0
vector 1089  Net80211_aodv.host[28].wlan[0].mac  RadioState  ETV
attr enum "IDLE=0, OFF=4, RECV=1, SLEEP=3, TRANSMIT=2"
attr enumname RadioState
1089	68797 22 0 0 0 0 2 0 0 0 0
vector 1088  Net80211_aodv.host[28].wlan[0].mac  State  ETV
attr enum "BACKOFF=3, DEFER=1, IDLE=0, RECEIVE=8, WAITACK=4, WAITAIFS=2, WAITCTS=6, WAITMULTICAST=5, WAITSIFS=7"
attr enumname Ieee80211Mac
1088	68775 22 0 0 0 0 2 0 0 0 0
vector 1096  Net80211_aodv.host[29].wlan[0].mac  RadioState  ETV
attr enum "IDLE=0, OFF=4, RECV=1, SLEEP=3, TRANSMIT=2"
attr enumname RadioState
1096	68841 22 0 0 0 0 2 0 0 0 0
vector 1095  Net80211_aodv.host[29].wlan[0].mac  State  ETV
attr enum "BACKOFF=3, DEFER=1, IDLE=0, RECEIVE=8, WAITACK=4, WAITAIFS=2, WAITCTS=6, WAITMULTICAST=5, WAITSIFS=7"
attr enumname Ieee80211Mac
1095	68819 22 0 0 0 0 2 0 0 0 0
vector 1103  Net80211_aodv.host[30].wlan[0].mac  RadioState  ETV
attr enum "IDLE=0, OFF=4, RECV=1, SLEEP=3, TRANSMIT=2"
attr enumname RadioState
1103	68989 126 0 767 0 10.00334398296 6 0 1 2 2
vector 1102  Net80211_aodv.host[30].wlan[0].mac  State  ETV
attr enum "BACKOFF=3, DEFER=1, IDLE=0, RECEIVE=8, WAITACK=4, WAITAIFS=2, WAITCTS=6, WAITMULTICAST=5, WAITSIFS=7"
attr enumname Ieee80211Mac
1102	68863 126 0 767 0 10.00334398296 6 0 0 0 0
vector 1110  Net80211_aodv.host[31].wlan[0].mac  RadioState  ETV
attr enum "IDLE=0, OFF=4, RECV=1, SLEEP=3, TRANSMIT=2"
attr enumname RadioState
1110	69163 22 0 0 0 0 2 0 0 0 0
vector 1109  Net80211_aodv.host[31].wlan[0].mac  State  ETV
attr enum "BACKOFF=3, DEFER=1, IDLE=0, RECEIVE=8, WAITACK=4, WAITAIFS=2, WAITCTS=6, WAITMULTICAST=5, WAITSIFS=7"
attr enumname Ieee80211Mac
1109	69141 22 0 0 0 0 2 0 0 0 0
vector 1117  Net80211_aodv.host[32].wlan[0].mac  RadioState  ETV
attr enum "IDLE=0, OFF=4, RECV=1, SLEEP=3, TRANSMIT=2"
attr enumname RadioState
1117	69207 22 0 0 0 0 2 0 0 0 0
vector 1116  Net80211_aodv.host[32].wlan[0].mac  State  ETV
attr enum "BACKOFF=3, DEFER=1, IDLE=0, RECEIVE=8, WAITACK=4, WAITAIFS=2, WAITCTS=6, WAITMULTICAST=5, WAITSIFS=7"
attr enumname Ieee80211Mac
1116	69185 22 0 0 0 0 2 0 0 0 0
vector 1124  Net80211_aodv.host[33].wlan[0].mac  RadioState  ETV
attr enum "IDLE=0, OFF=4, RECV=1, SLEEP=3, TRANSMIT=2"
attr enumname RadioState
1124	69251 22 0 0 0 0 2 0 0 0 0
vector 1123  Net80211_aodv.host[33].wlan[0].mac  State  ETV
attr enum "BACKOFF=3, DEFER=1, IDLE=0, RECEIVE=8, WAITACK=4, WAITAIFS=2, WAITCTS=6, WAITMULTICAST=5, WAITSIFS=7"
attr enumname Ieee80211Mac
1123	69229 22 0 0 0 0 2 0 0 0 0
vector 1131  Net80211_aodv.host[34].wlan[0].mac  RadioState  ETV
attr enum "IDLE=0, OFF=4, RECV=1, SLEEP=3, TRANSMIT=2"
attr enumname RadioState
1131	69613 234 0 927 0 10.003805095906 10 0 1 4 4
vector 1130  Net80211_aodv.host[34].wlan[0].mac  State  ETV
attr enum "BACKOFF=3, DEFER=1, IDLE=0, RECEIVE=8, WAITACK=4, WAITAIFS=2, WAITCTS=6, WAITMULTICAST=5, WAITSIFS=7"
attr enumname Ieee80211Mac
1130	69273 340 0 928 0 10.003805095906 14 0 0 0 0
vector 1138  Net80211_aodv.host[35].wlan[0].mac  RadioState  ETV
attr enum "IDLE=0, OFF=4, RECV=1, SLEEP=3, TRANSMIT=2"
attr enumname RadioState
1138	69935 22 0 0 0 0 2 0 0 0 0
vector 1137  Net80211_aodv.host[35].wlan[0].mac  State  ETV
attr enum "BACKOFF=3, DEFER=1, IDLE=0, RECEIVE=8, WAITACK=4, WAITAIFS=2, WAITCTS=6, WAITMULTICAST=5, WAITSIFS=7"
attr enumname Ieee80211Mac
1137	69913 22 0 0 0 0 2 0 0 0 0
vector 1145  Net80211_aodv.host[36].wlan[0].mac  RadioState  ETV
attr enum "IDLE=0, OFF=4, RECV=1, SLEEP=3, TRANSMIT=2"
attr enumname RadioState
1145	70681 346 0 903 0 10.003803931874 14 0 2 8 12
vector 1144  Net80211_aodv.host[36].wlan[0].mac  State  ETV
attr enum "BACKOFF=3, DEFER=1, IDLE=0, RECEIVE=8, WAITACK=4, WAITAIFS=2, WAITCTS=6, WAITMULTICAST=5, WAITSIFS=7"
attr enumname Ieee80211Mac
1144	69957 724 0 904 0 10.003803931874 28 0 5 36 136
vector 1152  Net80211_aodv.host[37].wlan[0].mac  RadioState  ETV
attr enum "IDLE=0, OFF=4, RECV=1, SLEEP=3, TRANSMIT=2"
attr enumname RadioState
1152	71711 346 0 894 0 10.003803673647 14 0 2 8 12
vector 1151  Net80211_aodv.host[37].wlan[0].mac  State  ETV
attr enum "BACKOFF=3, DEFER=1, IDLE=0, RECEIVE=8, WAITACK=4, WAITAIFS=2, WAITCTS=6, WAITMULTICAST=5, WAITSIFS=7"
attr enumname Ieee80211Mac
1151	71095 616 0 894 0 10.003803673647 24 0 5 28 114
vector 1159  Net80211_aodv.host[38].wlan[0].mac  RadioState  ETV
attr enum "IDLE=0, OFF=4, RECV=1, SLEEP=3, TRANSMIT=2"
attr enumname RadioState
1159	72147 22 0 0 0 0 2 0 0 0 0
vector 1158  Net80211_aodv.host[38].wlan[0].mac  State  ETV
attr enum "BACKOFF=3, DEFER=1, IDLE=0, RECEIVE=8, WAITACK=4, WAITAIFS=2, WAITCTS=6, WAITMULTICAST=5, WAITSIFS=7"
attr enumname Ieee80211Mac
1158	72125 22 0 0 0 0 2 0 0 0 0
vector 1166  Net80211_aodv.host[39].wlan[0].mac  RadioState  ETV
attr enum "IDLE=0, OFF=4, RECV=1, SLEEP=3, TRANSMIT=2"
attr enumname RadioState
1166	72191 22 0 0 0 0 2 0 0 0 0
vector 1165  Net80211_aodv.host[39].wlan[0].mac  State  ETV
attr enum "BACKOFF=3, DEFER=1, IDLE=0, RECEIVE=8, WAITACK=4, WAITAIFS=2, WAITCTS=6, WAITMULTICAST=5, WAITSIFS=7"
attr enumname Ieee80211Mac
1165	72169 22 0 0 0 0 2 0 0 0 0
vector 1173  Net80211_aodv.host[40].wlan[0].mac  RadioState  ETV
attr enum "IDLE=0, OFF=4, RECV=1, SLEEP=3, TRANSMIT=2"
attr enumname RadioState
1173	72235 22 0 0 0 0 2 0 0 0 0
vector 1172  Net80211_aodv.host[40].wlan[0].mac  State  ETV
attr enum "BACKOFF=3, DEFER=1, IDLE=0, RECEIVE=8, WAITACK=4, WAITAIFS=2, WAITCTS=6, WAITMULTICAST=5, WAITSIFS=7"
attr enumname Ieee80211Mac
1172	72213 22 0 0 0 0 2 0 0 0 0
vector 1180  Net80211_aodv.host[41].wlan[0].mac  RadioState  ETV
attr enum "IDLE=0, OFF=4, RECV=1, SLEEP=3, TRANSMIT=2"
attr enumname RadioState
1180	72279 22 0 0 0 0 2 0 0 0 0
vector 1179  Net80211_aodv.host[41].wlan[0].mac  State  ETV
attr enum "BACKOFF=3, DEFER=1, IDLE=0, RECEIVE=8, WAITACK=4, WAITAIFS=2, WAITCTS=6, WAITMULTICAST=5, WAITSIFS=7"
attr enumname Ieee80211Mac
1179	72257 22 0 0 0 0 2 0 0 0 0
vector 1187  Net80211_aodv.host[42].wlan[0].mac  RadioState  ETV
attr enum "IDLE=0, OFF=4, RECV=1, SLEEP=3, TRANSMIT=2"
attr enumname RadioState
1187	72323 22 0 0 0 0 2 0 0 0 0
vector 1186  Net80211_aodv.host[42].wlan[0].mac  State  ETV
attr enum "BACKOFF=3, DEFER=1, IDLE=0, RECEIVE=8, WAITACK=4, WAITAIFS=2, WAITCTS=6, WAITMULTICAST=5, WAITSIFS=7"
attr enumname Ieee80211Mac
1186	72301 22 0 0 0 0 2 0 0 0 0
vector 1194  Net80211_aodv.host[43].wlan[0].mac  RadioState  ETV
attr enum "IDLE=0, OFF=4, RECV=1, SLEEP=3, TRANSMIT=2"
attr enumname RadioState
1194	72367 22 0 0 0 0 2 0 0 0 0
vector 1193  Net80211_aodv.host[43].wlan[0].mac  State  ETV
attr enum "BACKOFF=3, DEFER=1, IDLE=0, RECEIVE=8, WAITACK=4, WAITAIFS=2, WAITCTS=6, WAITMULTICAST=5, WAITSIFS=7"
attr enumname Ieee80211Mac
1193	72345 22 0 0 0 0 2 0 0 0 0
vector 1201  Net80211_aodv.host[44].wlan[0].mac  RadioState  ETV
attr enum "IDLE=0, OFF=4, RECV=1, SLEEP=3, TRANSMIT=2"
attr enumname RadioState
1201	72411 22 0 0 0 0 2 0 0 0 0
vector 1200  Net80211_aodv.host[44].wlan[0].mac  State  ETV
attr enum "BACKOFF=3, DEFER=1, IDLE=0, RECEIVE=8, WAITACK=4, WAITAIFS=2, WAITCTS=6, WAITMULTICAST=5, WAITSIFS=7"
attr enumname Ieee80211Mac
1200	72389 22 0 0 0 0 2 0 0 0 0
vector 1208  Net80211_aodv.host[45].wlan[0].mac  RadioState  ETV
attr enum "IDLE=0, OFF=4, RECV=1, SLEEP=3, TRANSMIT=2"
attr enumname RadioState
1208	72455 22 0 0 0 0 2 0 0 0 0
vector 1207  Net80211_aodv.host[45].wlan[0].mac  State  ETV
attr enum "BACKOFF=3, DEFER=1, IDLE=0, RECEIVE=8, WAITACK=4, WAITAIFS=2, WAITCTS=6, WAITMULTICAST=5, WAITSIFS=7"
attr enumname Ieee80211Mac
1207	72433 22 0 0 0 0 2 0 0 0 0
vector 1215  Net80211_aodv.host[46].wlan[0].mac  RadioState  ETV
attr enum "IDLE=0, OFF=4, RECV=1, SLEEP=3, TRANSMIT=2"
attr enumname RadioState
1215	72499 22 0 0 0 0 2 0 0 0 0
vector 1214  Net80211_aodv.host[46].wlan[0].mac  State  ETV
attr enum "BACKOFF=3, DEFER=1, IDLE=0, RECEIVE=8, WAITACK=4, WAITAIFS=2, WAITCTS=6, WAITMULTICAST=5, WAITSIFS=7"
attr enumname Ieee80211Mac
1214	72477 22 0 0 0 0 2 0 0 0 0
vector 1222  Net80211_aodv.host[47].wlan[0].mac  RadioState  ETV
attr enum "IDLE=0, OFF=4, RECV=1, SLEEP=3, TRANSMIT=2"
attr enumname RadioState
1222	72543 22 0 0 0 0 2 0 0 0 0
vector 1221  Net80211_aodv.host[47].wlan[0].mac  State  ETV
attr enum "BACKOFF=3, DEFER=1, IDLE=0, RECEIVE=8, WAITACK=4, WAITAIFS=2, WAITCTS=6, WAITMULTICAST=5, WAITSIFS=7"
attr enumname Ieee80211Mac
1221	72521 22 0 0 0 0 2 0 0 0 0